{
  "types": [ "ingot", "nugget" ],
  "materials": [
    { "display_name": "Beryllium", "id": "beryllium", "atomic_symbol": "Be", "mass_number": 9, "atomic_number": 4, "charge": 0, "density": 1.848, "strength": 0, "melting_point": 0, "boiling_point": 0, "color": "0x55fc87" },
    { "display_name": "Magnesium", "id": "magnesium", "atomic_symbol": "Mg", "mass_number": 24, "atomic_number": 12, "charge": 0, "density": 1.848, "strength": 0, "melting_point": 0, "boiling_point": 0, "color": "0xffffff" },
    { "display_name": "Calcium", "id": "calcium", "atomic_symbol": "Ca", "mass_number": 40, "atomic_number": 20, "charge": 0, "density": 1.848, "strength": 0, "melting_point": 0, "boiling_point": 0, "color": "0xf7f7f7" },
    { "display_name": "Strontium", "id": "strontium", "atomic_symbol": "Sr", "mass_number": 88, "atomic_number": 38, "charge": 0, "density": 1.848, "strength": 0, "melting_point": 0, "boiling_point": 0, "color": "0xf7f7f7" },
    { "display_name": "Barium", "id": "barium", "atomic_symbol": "Ba", "mass_number": 88, "atomic_number": 38, "charge": 0, "density": 1.848, "strength": 0, "melting_point": 0, "boiling_point": 0, "color": "0xf7f7f7" },
    { "display_name": "Radium", "id": "radium", "atomic_symbol": "Ba", "mass_number": 226, "atomic_number": 88, "charge": 0, "density": 1.848, "strength": 0, "melting_point": 0, "boiling_point": 0, "color": "0xf7f7f7" }
  ]
}