{
  "types": [ "ingot", "nugget" ],
  "materials": [
    { "display_name": "Beryllium", "id": "beryllium", "atomic_symbol": "Be", "mass_number": 9.012, "atomic_number": 4, "charge": -2, "density": 1.850, "strength": 5.5, "melting_point": 1560, "boiling_point": 2744, "color": "0x55fc87" },
    { "display_name": "Magnesium", "id": "magnesium", "atomic_symbol": "Mg", "mass_number": 24.305, "atomic_number": 12, "charge": -2, "density": 1.740, "strength": 1, "melting_point": 923, "boiling_point": 1363, "color": "0xffffff" },
    { "display_name": "Calcium", "id": "calcium", "atomic_symbol": "Ca", "mass_number": 40.08, "atomic_number": 20, "charge": -2, "density": 1.540, "strength": 1.73, "melting_point": 1115, "boiling_point": 1757, "color": "0xf7f7f7" },
    { "display_name": "Strontium", "id": "strontium", "atomic_symbol": "Sr", "mass_number": 87.62, "atomic_number": 38, "charge": -2, "density": 2.640, "strength": 1.5, "melting_point": 1050, "boiling_point": 1655, "color": "0xf7f7f7" },
    { "display_name": "Barium", "id": "barium", "atomic_symbol": "Ba", "mass_number": 137.33, "atomic_number": 56, "charge": -2, "density": 3.620, "strength": 1.25, "melting_point": 1000, "boiling_point": 2170, "color": "0xf7f7f7" },
    { "display_name": "Radium", "id": "radium", "atomic_symbol": "Ra", "mass_number": 226.025, "atomic_number": 88, "charge": -2, "density": 5.000, "strength": -1, "melting_point": 973, "boiling_point": 1413, "color": "0xf7f7f7" }
  ]
}