{
  "materials": [
    { "display_name": "Scandium", "id": "scandium", "atomic_symbol": "Sc", "mass_number": 44.95591, "atomic_number": 21, "charge": -3, "density": 2.99, "strength": -1, "melting_point": 1814, "boiling_point": 3109, "color": "0xfcefd9", "prefixes": [ "ingot", "nugget" ] },
    { "display_name": "Titanium", "id": "titanium", "atomic_symbol": "Ti", "mass_number": 47.867, "atomic_number": 22, "charge": -4, "density": 4.5, "strength": 6.0, "melting_point": 1941, "boiling_point": 3560, "color": "0xfcefd9", "prefixes": [ "ingot", "nugget" ] },
    { "display_name": "Vanadium", "id": "vanadium", "atomic_symbol": "V", "mass_number": 50.9415, "atomic_number": 23, "charge": -5, "density": 6.0, "strength": 6.7, "melting_point": 2183, "boiling_point": 3680, "color": "0xfcefd9", "prefixes": [ "ingot", "nugget" ] },
    { "display_name": "Chromium", "id": "chromium", "atomic_symbol": "Cr", "mass_number": 51.996, "atomic_number": 24, "charge": -6, "density": 7.15, "strength": 8.5, "melting_point": 2180, "boiling_point": 2944, "color": "0xd8d8d8", "prefixes": [ "ingot", "nugget" ] },
    { "display_name": "Manganese", "id": "manganese", "atomic_symbol": "Mn", "mass_number": 54.93804, "atomic_number": 25, "charge": -7, "density": 7.3, "strength": 6.0, "melting_point": 1519, "boiling_point": 2334, "color": "0xfcb8e3", "prefixes": [ "ingot", "nugget" ] },
    { "display_name": "Iron", "id": "iron", "atomic_symbol": "Fe", "mass_number": 55.84, "atomic_number": 26, "charge": -3, "density": 7.874, "strength": 4.0, "melting_point": 1811, "boiling_point": 3134, "color": "0xffffff", "prefixes": [ "ingot", "nugget" ] },
    { "display_name": "Cobalt", "id": "cobalt", "atomic_symbol": "Co", "mass_number": 58.93319, "atomic_number": 27, "charge": -3, "density": 8.86, "strength": 5.0, "melting_point": 1768, "boiling_point": 3200, "color": "0x847bfc", "prefixes": [ "ingot", "nugget" ] },
    { "display_name": "Nickel", "id": "nickel", "atomic_symbol": "Ni", "mass_number": 58.693, "atomic_number": 28, "charge": -3, "density": 8.912, "strength": 4.0, "melting_point": 1728, "boiling_point": 3186, "color": "0xebeafc", "prefixes": [ "ingot", "nugget" ] },
    { "display_name": "Copper", "id": "copper", "atomic_symbol": "Cu", "mass_number": 63.55, "atomic_number": 29, "charge": -2, "density": 8.933, "strength": 3.0, "melting_point": 1357.77, "boiling_point": 2835, "color": "0xfc6837", "prefixes": [ "ingot", "nugget" ] },
    { "display_name": "Zinc", "id": "zinc", "atomic_symbol": "Zn", "mass_number": 65.4, "atomic_number": 30, "charge": -2, "density": 7.134, "strength": 2.5, "melting_point": 692.68, "boiling_point": 1180, "color": "0xfcdba9", "prefixes": [ "ingot", "nugget" ] },

    { "display_name": "Yttrium", "id": "yttrium", "atomic_symbol": "Y", "mass_number": 88.90584, "atomic_number": 39, "charge": -3, "density": 4.47, "strength": -1, "melting_point": 1795, "boiling_point": 3618, "color": "0xfcdba9", "prefixes": [ "ingot", "nugget" ] },
    { "display_name": "Zirconium", "id": "zirconium", "atomic_symbol": "Zr", "mass_number": 91.22, "atomic_number": 40, "charge": -4, "density": 6.52, "strength": 5.0, "melting_point": 2128, "boiling_point": 4682, "color": "0xfcdba9", "prefixes": [ "ingot", "nugget" ] },
    { "display_name": "Niobium", "id": "niobium", "atomic_symbol": "Nb", "mass_number": 92.90637, "atomic_number": 41, "charge": -5, "density": 8.57, "strength": 6.0, "melting_point": 2750, "boiling_point": 5017, "color": "0xfcdba9", "prefixes": [ "ingot", "nugget" ] },
    { "display_name": "Molybdenum", "id": "molybdenum", "atomic_symbol": "Mo", "mass_number": 95.95, "atomic_number": 42, "charge": -6, "density": 10.2, "strength": 5.5, "melting_point": 2896, "boiling_point": 4912, "color": "0xfcdba9", "prefixes": [ "ingot", "nugget" ] },
    { "display_name": "Technetium", "id": "technetium", "atomic_symbol": "Tc", "mass_number": 96.90636, "atomic_number": 43, "charge": -7, "density": 11.0, "strength": -1, "melting_point": 2430, "boiling_point": 4538, "color": "0xfcdba9", "prefixes": [ "ingot", "nugget" ] },
    { "display_name": "Ruthenium", "id": "ruthenium", "atomic_symbol": "Ru", "mass_number": 101.1, "atomic_number": 44, "charge": -3, "density": 12.1, "strength": 6.5, "melting_point": 2607, "boiling_point": 4423, "color": "0xfcdba9", "prefixes": [ "ingot", "nugget" ] },
    { "display_name": "Rhodium", "id": "rhodium", "atomic_symbol": "Rh", "mass_number": 102.9055, "atomic_number": 45, "charge": -3, "density": 12.4, "strength": 6.0, "melting_point": 2237, "boiling_point": 3968, "color": "0xfcdba9", "prefixes": [ "ingot", "nugget" ] },
    { "display_name": "Palladium", "id": "palladium", "atomic_symbol": "Pd", "mass_number": 106.42, "atomic_number": 46, "charge": -3, "density": 12.0, "strength": 4.75, "melting_point": 1828.05, "boiling_point": 3236, "color": "0xfcdba9", "prefixes": [ "ingot", "nugget" ] },
    { "display_name": "Silver", "id": "silver", "atomic_symbol": "Ag", "mass_number": 107.868, "atomic_number": 47, "charge": -1, "density": 10.501, "strength": 2.5, "melting_point": 1234.93, "boiling_point": 2435, "color": "0xbdfcf1", "prefixes": [ "ingot", "nugget" ] },
    { "display_name": "Cadmium", "id": "cadmium", "atomic_symbol": "Cd", "mass_number": 112.41, "atomic_number": 48, "charge": -2, "density": 8.69, "strength": 2.0, "melting_point": 594.22, "boiling_point": 1040, "color": "0xbdfcf1", "prefixes": [ "ingot", "nugget" ] },

    { "display_name": "Hafnium", "id": "hafnium", "atomic_symbol": "Hf", "mass_number": 178.49, "atomic_number": 72, "charge": -4, "density": 13.3, "strength": 5.5, "melting_point": 2506, "boiling_point": 4876, "color": "0xbdfcf1", "prefixes": [ "ingot", "nugget" ] },
    { "display_name": "Tantalum", "id": "tantalum", "atomic_symbol": "Ta", "mass_number": 180.9479, "atomic_number": 73, "charge": -5, "density": 16.4, "strength": 6.5, "melting_point": 3290, "boiling_point": 5731, "color": "0xbdfcf1", "prefixes": [ "ingot", "nugget" ] },
    { "display_name": "Tungsten", "id": "tungsten", "atomic_symbol": "W", "mass_number": 183.84, "atomic_number": 74, "charge": -6, "density": 19.3, "strength": 7.5, "melting_point": 3695, "boiling_point": 5828, "color": "0xc5fcbd", "prefixes": [ "ingot", "nugget" ] },
    { "display_name": "Rhenium", "id": "rhenium", "atomic_symbol": "Re", "mass_number": 186.207, "atomic_number": 75, "charge": -7, "density": 20.8, "strength": 7.0, "melting_point": 3459, "boiling_point": 5869, "color": "0xc5fcbd", "prefixes": [ "ingot", "nugget" ] },
    { "display_name": "Osmium", "id": "osmium", "atomic_symbol": "Os", "mass_number": 190.2, "atomic_number": 76, "charge": -4, "density": 22.57, "strength": 7.0, "melting_point": 3306, "boiling_point": 5285, "color": "0x6cfafc", "prefixes": [ "ingot", "nugget" ] },
    { "display_name": "Iridium", "id": "iridium", "atomic_symbol": "Ir", "mass_number": 192.22, "atomic_number": 77, "charge": -4, "density": 22.42, "strength": 6.5, "melting_point": 2719, "boiling_point": 4701, "color": "0xfce0fb", "prefixes": [ "ingot", "nugget" ] },
    { "display_name": "Platinum", "id": "platinum", "atomic_symbol": "Pt", "mass_number": 195.08, "atomic_number": 78, "charge": -4, "density": 21.46, "strength": 3.5, "melting_point": 2041.55, "boiling_point": 4098, "color": "0xcce6fc", "prefixes": [ "ingot", "nugget" ] },
    { "display_name": "Gold", "id": "gold", "atomic_symbol": "Au", "mass_number": 196.96657, "atomic_number": 79, "charge": -3, "density": 19.282, "strength": 2.5, "melting_point": 1337.33, "boiling_point": 3129, "color": "0xfcdb46", "prefixes": [ "ingot", "nugget" ] },
    { "display_name": "Mercury", "id": "mercury", "atomic_symbol": "Hg", "mass_number": 200.59, "atomic_number": 80, "charge": -2, "density": 13.5336, "strength": -1, "melting_point": 234.32, "boiling_point": 629.88, "color": "0x7149f4", "prefixes": [ "ingot", "nugget" ] }

  ]
}