{
  "types": [ "liquid", "solid", "gas", "plasma", "supercritical" ],
  "materials": [
    { "display_name": "Hydrogen", "id": "hydrogen", "atomic_symbol": "H", "mass_number": 2, "atomic_number": 1, "charge": 0, "density": 0.0899, "strength": 0, "melting_point": 0, "boiling_point": 0, "color": "0xf8d1fc" },
    { "display_name": "Helium", "id": "helium", "atomic_symbol": "He", "mass_number": 4, "atomic_number": 2, "charge": 0, "density": 0.0899, "strength": 0, "melting_point": 0, "boiling_point": 0, "color": "0xf8d1fc" },
    { "display_name": "Carbon", "id": "carbon", "atomic_symbol": "C", "mass_number": 12, "atomic_number": 6, "charge": 0, "density": 0.0899, "strength": 0, "melting_point": 0, "boiling_point": 0, "color": "0xf8d1fc" },
    { "display_name": "Nitrogen", "id": "nitrogen", "atomic_symbol": "N", "mass_number": 14, "atomic_number": 7, "charge": 0, "density": 0.0899, "strength": 0, "melting_point": 0, "boiling_point": 0, "color": "0xf8d1fc" },
    { "display_name": "Oxygen", "id": "oxygen", "atomic_symbol": "O", "mass_number": 15, "atomic_number": 8, "charge": 0, "density": 0.0899, "strength": 0, "melting_point": 0, "boiling_point": 0, "color": "0xf8d1fc" },
    { "display_name": "Fluorine", "id": "fluorine", "atomic_symbol": "F", "mass_number": 18, "atomic_number": 9, "charge": 0, "density": 0.0899, "strength": 0, "melting_point": 0, "boiling_point": 0, "color": "0xf8d1fc" },
    { "display_name": "Neon", "id": "neon", "atomic_symbol": "Ne", "mass_number": 20, "atomic_number": 10, "charge": 0, "density": 0.0899, "strength": 0, "melting_point": 0, "boiling_point": 0, "color": "0xf8d1fc" },
    { "display_name": "Phosphorus", "id": "phosphorus", "atomic_symbol": "P", "mass_number": 30, "atomic_number": 15, "charge": 0, "density": 0.0899, "strength": 0, "melting_point": 0, "boiling_point": 0, "color": "0xf8d1fc" },
    { "display_name": "Sulfur", "id": "sulfur", "atomic_symbol": "S", "mass_number": 32, "atomic_number": 16, "charge": 0, "density": 0.0899, "strength": 0, "melting_point": 0, "boiling_point": 0, "color": "0xf8d1fc" },
    { "display_name": "Chlorine", "id": "chlorine", "atomic_symbol": "Cl", "mass_number": 35, "atomic_number": 17, "charge": 0, "density": 0.0899, "strength": 0, "melting_point": 0, "boiling_point": 0, "color": "0xf8d1fc" },
    { "display_name": "Argon", "id": "argon", "atomic_symbol": "Ar", "mass_number": 39, "atomic_number": 18, "charge": 0, "density": 0.0899, "strength": 0, "melting_point": 0, "boiling_point": 0, "color": "0xf8d1fc" },
    { "display_name": "Selenium", "id": "selenium", "atomic_symbol": "Se", "mass_number": 78, "atomic_number": 34, "charge": 0, "density": 0.0899, "strength": 0, "melting_point": 0, "boiling_point": 0, "color": "0xf8d1fc" },
    { "display_name": "Bromine", "id": "bromine", "atomic_symbol": "Br", "mass_number": 79, "atomic_number": 35, "charge": 0, "density": 0.0899, "strength": 0, "melting_point": 0, "boiling_point": 0, "color": "0xf8d1fc" },
    { "display_name": "Krypton", "id": "krypton", "atomic_symbol": "Kr", "mass_number": 83, "atomic_number": 36, "charge": 0, "density": 0.0899, "strength": 0, "melting_point": 0, "boiling_point": 0, "color": "0xf8d1fc" },
    { "display_name": "Iodine", "id": "iodine", "atomic_symbol": "I", "mass_number": 126, "atomic_number": 53, "charge": 0, "density": 0.0899, "strength": 0, "melting_point": 0, "boiling_point": 0, "color": "0xf8d1fc" },
    { "display_name": "Xenon", "id": "xenon", "atomic_symbol": "Xe", "mass_number": 131, "atomic_number": 54, "charge": 0, "density": 0.0899, "strength": 0, "melting_point": 0, "boiling_point": 0, "color": "0xf8d1fc" },
    { "display_name": "Astatine", "id": "astatine", "atomic_symbol": "At", "mass_number": 209, "atomic_number": 85, "charge": 0, "density": 0.0899, "strength": 0, "melting_point": 0, "boiling_point": 0, "color": "0xf8d1fc" },
    { "display_name": "Radon", "id": "radon", "atomic_symbol": "Rn", "mass_number": 222, "atomic_number": 86, "charge": 0, "density": 0.0899, "strength": 0, "melting_point": 0, "boiling_point": 0, "color": "0xf8d1fc" }
  ]
}